LAMMPS data file generated with LigParGen (israel.cabezadevaca@yale.edu)

      12 atoms
      12 bonds
      18 angles
      24 dihedrals
       6 impropers

      15 atom types
      12 bond types
      18 angle types
      24 dihedral types
       6 improper types

   -2.338000    47.662000 xlo xhi
   -2.402000    47.598000 ylo yhi
   -0.076000    49.924000 zlo zhi


Masses

       1     12.011
       2     12.011
       3     12.011
       4     12.011
       5     12.011
       6     12.011
       7      1.008
       8      1.008
       9      1.008
      10      1.008
      11      1.008
      12      1.008

Pair Coeffs

       1      0.070  3.5500000
       2      0.070  3.5500000
       3      0.070  3.5500000
       4      0.070  3.5500000
       5      0.070  3.5500000
       6      0.070  3.5500000
       7      0.030  2.4200000
       8      0.030  2.4200000
       9      0.030  2.4200000
      10      0.030  2.4200000
      11      0.030  2.4200000
      12      0.030  2.4200000

Bond Coeffs

       1   469.0000     1.4000
       2   469.0000     1.4000
       3   469.0000     1.4000
       4   469.0000     1.4000
       5   469.0000     1.4000
       6   367.0000     1.0800
       7   367.0000     1.0800
       8   367.0000     1.0800
       9   367.0000     1.0800
      10   367.0000     1.0800
      11   367.0000     1.0800
      12   469.0000     1.4000

Angle Coeffs

       1     63.000    120.000
       2     63.000    120.000
       3     63.000    120.000
       4     63.000    120.000
       5     35.000    120.000
       6     35.000    120.000
       7     35.000    120.000
       8     35.000    120.000
       9     35.000    120.000
      10     35.000    120.000
      11     35.000    120.000
      12     35.000    120.000
      13     35.000    120.000
      14     35.000    120.000
      15     63.000    120.000
      16     35.000    120.000
      17     35.000    120.000
      18     63.000    120.000

Dihedral Coeffs

       1      0.000      7.250      0.000      0.000
       2      0.000      7.250      0.000      0.000
       3      0.000      7.250      0.000      0.000
       4      0.000      7.250      0.000      0.000
       5      0.000      7.250      0.000      0.000
       6      0.000      7.250      0.000      0.000
       7      0.000      7.250      0.000      0.000
       8      0.000      7.250      0.000      0.000
       9      0.000      7.250      0.000      0.000
      10      0.000      7.250      0.000      0.000
      11      0.000      7.250      0.000      0.000
      12      0.000      7.250      0.000      0.000
      13      0.000      7.250      0.000      0.000
      14      0.000      7.250      0.000      0.000
      15      0.000      7.250      0.000      0.000
      16      0.000      7.250      0.000      0.000
      17      0.000      7.250      0.000      0.000
      18      0.000      7.250      0.000      0.000
      19      0.000      7.250      0.000      0.000
      20      0.000      7.250      0.000      0.000
      21      0.000      7.250      0.000      0.000
      22      0.000      7.250      0.000      0.000
      23      0.000      7.250      0.000      0.000
      24      0.000      7.250      0.000      0.000

Improper Coeffs

       1      2.500      -1       2
       2      2.500      -1       2
       3      2.500      -1       2
       4      2.500      -1       2
       5      2.500      -1       2
       6      2.500      -1       2

Atoms

     1      1      1  -0.138696  1.29800  0.39300 -0.04200
     2      1      2  -0.137064  0.30400  1.34300 -0.01400
     3      1      3  -0.135358  1.02100 -0.96300 -0.02900
     4      1      4  -0.131338 -0.29900 -1.35100  0.01400
     5      1      5  -0.135788 -1.30600 -0.40300  0.04300
     6      1      6  -0.137648 -1.03100  0.95000  0.02900
     7      1      7   0.134285 -0.50300 -2.40200  0.02400
     8      1      8   0.131947 -2.33800 -0.72400  0.07700
     9      1      9   0.141126 -1.83000  1.67900  0.05200
    10      1     10   0.136785  0.50600  2.41200 -0.02400
    11      1     11   0.130471  2.32900  0.72200 -0.07600
    12      1     12   0.141279  1.84900 -1.65600 -0.05300

Bonds

     1      1      2      1
     2      2      3      1
     3      3      4      3
     4      4      5      4
     5      5      6      5
     6      6      7      4
     7      7      8      5
     8      8      9      6
     9      9     10      2
    10     10     11      1
    11     11     12      3
    12     12      6      2

Angles

     1      1      3      1      2
     2      2      4      3      1
     3      3      5      4      3
     4      4      6      5      4
     5      5      7      4      3
     6      6      8      5      4
     7      7      9      6      5
     8      8     10      2      1
     9      9     11      1      2
    10     10     12      3      1
    11     11     11      1      3
    12     12     12      3      4
    13     13      7      4      5
    14     14      8      5      6
    15     15      1      2      6
    16     16     10      2      6
    17     17      2      6      9
    18     18      5      6      2

Dihedrals

     1      1      4      3      1      2
     2      2      5      4      3      1
     3      3      6      5      4      3
     4      4      7      4      3      1
     5      5      8      5      4      3
     6      6      9      6      5      4
     7      7     10      2      1      3
     8      8     11      1      2      6
     9      9     12      3      1      2
    10     10      6      2      1      3
    11     11     11      1      3      4
    12     12     12      3      4      5
    13     13      7      4      5      6
    14     14     12      3      4      7
    15     15      8      5      4      7
    16     16      2      6      5      8
    17     17      9      6      5      8
    18     18      1      2      6      9
    19     19     10      2      6      9
    20     20     11      1      2     10
    21     21      5      6      2     10
    22     22     12      3      1     11
    23     23      4      5      6      2
    24     24      1      2      6      5

Impropers

     1      1      2      1      3     11
     2      2      1      2      6     10
     3      3      1      3      4     12
     4      4      3      4      5      7
     5      5      4      5      6      8
     6      6      5      6      2      9


